ITEM: TIMESTEP
0
ITEM: NUMBER OF ATOMS
50
ITEM: BOX BOUNDS xy xz yz pp pp pp
2.8347430000000000e+00 2.0754815000000001e+01 5.7099019999999996e+00
1.1195000000000000e-02 1.0811166000000000e+01 -1.3934999999999999e-02
3.2877000000000003e-02 1.5903981999999999e+01 2.3820000000000001e-02
ITEM: ATOMS id type xs ys zs
1 1 0.835383 0.0671538 0.497929
5 1 0.436234 0.0594651 0.486315
6 1 0.509533 0.119415 0.475704
7 1 0.451167 0.247135 0.469833
8 1 0.518729 0.314703 0.469782
9 1 0.441081 0.441134 0.48148
10 1 0.494841 0.522724 0.491505
13 1 0.430346 0.860363 0.499244
14 1 0.498786 0.92708 0.494236
15 1 0.639502 0.0584121 0.482809
16 1 0.707471 0.126342 0.482568
17 1 0.646457 0.256334 0.475471
18 1 0.706426 0.329635 0.486029
19 1 0.632042 0.461583 0.491085
20 1 0.698939 0.530352 0.498983
24 1 0.318268 0.447612 0.489912
26 1 0.324742 0.324796 0.481516
27 1 0.903209 0.135142 0.498782
28 1 0.838816 0.267079 0.493872
29 1 0.905514 0.335531 0.499077
37 1 0.630695 0.86271 0.499315
46 1 0.23552 0.0669406 0.49898
47 1 0.304287 0.133846 0.491206
48 1 0.243144 0.271051 0.491559
50 1 0.698654 0.930563 0.498516
2 1 0.290723 0.726863 0.509846
3 1 0.229581 0.864099 0.509508
4 1 0.29838 0.930981 0.50183
11 1 0.425388 0.657388 0.500752
12 1 0.493977 0.726016 0.500483
21 1 0.628296 0.662357 0.50141
22 1 0.695032 0.730844 0.50538
23 1 0.209069 0.673201 0.520048
25 1 0.215688 0.550188 0.512474
30 1 0.834894 0.4675 0.501828
31 1 0.901767 0.536302 0.509631
32 1 0.827378 0.668322 0.513417
33 1 0.887255 0.741788 0.52301
34 1 0.826486 0.871507 0.514128
35 1 0.894403 0.939385 0.513885
36 1 0.0350454 0.0708265 0.505014
38 1 0.10352 0.137581 0.501242
39 1 0.108476 0.340502 0.500752
40 1 0.0390013 0.475163 0.509901
41 1 0.0926787 0.55681 0.520086
42 1 0.0148621 0.683511 0.530218
43 1 0.0823726 0.751031 0.530165
44 1 0.0241006 0.878626 0.522773
45 1 0.0975652 0.938484 0.513127
49 1 0.0398554 0.271906 0.50037
ITEM: TIMESTEP
1
ITEM: NUMBER OF ATOMS
50
ITEM: BOX BOUNDS xy xz yz pp pp pp
2.8347430000000000e+00 2.0754815000000001e+01 5.7099019999999996e+00
1.1195000000000000e-02 1.0811166000000000e+01 -1.3934999999999999e-02
3.2877000000000003e-02 1.5903981999999999e+01 2.3820000000000001e-02
ITEM: ATOMS id type xs ys zs
1 1 0.836692 0.0657659 0.498014
5 1 0.435987 0.0599162 0.485933
6 1 0.510091 0.119303 0.476348
7 1 0.450627 0.247534 0.469578
8 1 0.51902 0.313403 0.469267
9 1 0.440567 0.441596 0.481143
10 1 0.494288 0.524338 0.491934
13 1 0.4309 0.860052 0.499114
14 1 0.499078 0.925592 0.494963
15 1 0.639925 0.0569682 0.482886
16 1 0.708644 0.124699 0.48253
17 1 0.645007 0.256417 0.475574
18 1 0.706538 0.329039 0.487017
19 1 0.632492 0.462955 0.490757
20 1 0.698311 0.529316 0.498716
24 1 0.319478 0.44623 0.489259
26 1 0.324106 0.325319 0.481509
27 1 0.902628 0.136369 0.498399
28 1 0.837831 0.267532 0.494913
29 1 0.906136 0.334513 0.49993
37 1 0.630401 0.863164 0.498721
46 1 0.235755 0.0660665 0.498768
47 1 0.305024 0.133016 0.490058
48 1 0.243349 0.270016 0.491756
50 1 0.698902 0.932242 0.49783
2 1 0.291911 0.725918 0.509512
3 1 0.229401 0.863319 0.50967
4 1 0.297158 0.932694 0.502831
11 1 0.424429 0.657899 0.501141
12 1 0.493761 0.726762 0.500474
21 1 0.627973 0.663603 0.502379
22 1 0.693702 0.730738 0.505306
23 1 0.209153 0.674013 0.519956
25 1 0.216057 0.550295 0.512568
30 1 0.835359 0.46748 0.501961
31 1 0.900534 0.5386 0.509309
32 1 0.826933 0.669383 0.513925
33 1 0.886413 0.742757 0.52322
34 1 0.825946 0.871294 0.512497
35 1 0.894104 0.94043 0.514272
36 1 0.0339995 0.0722822 0.504294
38 1 0.104333 0.136811 0.501294
39 1 0.109582 0.339879 0.501281
40 1 0.03904 0.475333 0.509677
41 1 0.0924629 0.556512 0.521087
42 1 0.0162128 0.682228 0.530153
43 1 0.0833045 0.750754 0.530318
44 1 0.0252186 0.878194 0.522286
45 1 0.0974154 0.937625 0.512542
49 1 0.0394002 0.272118 0.500119
ITEM: TIMESTEP
2
ITEM: NUMBER OF ATOMS
50
ITEM: BOX BOUNDS xy xz yz pp pp pp
2.8347430000000000e+00 2.0754815000000001e+01 5.7099019999999996e+00
1.1195000000000000e-02 1.0811166000000000e+01 -1.3934999999999999e-02
3.2877000000000003e-02 1.5903981999999999e+01 2.3820000000000001e-02
ITEM: ATOMS id type xs ys zs
1 1 0.83776 0.0647202 0.498068
5 1 0.435876 0.0601129 0.485581
6 1 0.510464 0.119275 0.476955
7 1 0.450221 0.247684 0.469316
8 1 0.519132 0.312401 0.468746
9 1 0.440216 0.441977 0.480807
10 1 0.493783 0.525726 0.492315
13 1 0.431221 0.859788 0.499025
14 1 0.499348 0.92445 0.495617
15 1 0.640314 0.0559547 0.482936
16 1 0.709656 0.123221 0.482497
17 1 0.643971 0.256257 0.475707
18 1 0.706501 0.328636 0.487971
19 1 0.632755 0.464021 0.490445
20 1 0.697891 0.528596 0.498497
24 1 0.320339 0.44526 0.488699
26 1 0.323534 0.325697 0.481493
27 1 0.902126 0.137433 0.498046
28 1 0.836897 0.267953 0.49593
29 1 0.906666 0.333718 0.500759
37 1 0.63017 0.863547 0.498161
46 1 0.236002 0.0653348 0.498556
47 1 0.305643 0.132262 0.488958
48 1 0.243626 0.269031 0.491921
50 1 0.699126 0.933405 0.497164
2 1 0.292839 0.725199 0.509217
3 1 0.229287 0.862667 0.50982
4 1 0.296133 0.934008 0.503792
11 1 0.423706 0.658391 0.501505
12 1 0.493522 0.727427 0.500488
21 1 0.627523 0.664569 0.503292
22 1 0.692597 0.730844 0.50526
23 1 0.209406 0.674514 0.519838
25 1 0.21655 0.550268 0.512633
30 1 0.835738 0.467482 0.502092
31 1 0.899498 0.540578 0.508997
32 1 0.826312 0.670457 0.514399
33 1 0.885871 0.743503 0.523415
34 1 0.825572 0.871273 0.510933
35 1 0.893994 0.941066 0.514632
36 1 0.0331148 0.073462 0.503605
38 1 0.104972 0.136245 0.501327
39 1 0.110462 0.339318 0.501786
40 1 0.0390278 0.47552 0.509492
41 1 0.0924857 0.556098 0.522022
42 1 0.0171047 0.681367 0.530136
43 1 0.0840732 0.750563 0.530472
44 1 0.0261038 0.87775 0.521827
45 1 0.0973014 0.937054 0.511939
49 1 0.0391501 0.272198 0.499901
ITEM: TIMESTEP
3
ITEM: NUMBER OF ATOMS
50
ITEM: BOX BOUNDS xy xz yz pp pp pp
2.8347430000000000e+00 2.0754815000000001e+01 5.7099019999999996e+00
1.1195000000000000e-02 1.0811166000000000e+01 -1.3934999999999999e-02
3.2877000000000003e-02 1.5903981999999999e+01 2.3820000000000001e-02
ITEM: ATOMS id type xs ys zs
1 1 0.83842 0.0642811 0.498057
5 1 0.436006 0.0599371 0.485285
6 1 0.510559 0.119342 0.477497
7 1 0.449989 0.247485 0.469061
8 1 0.518915 0.311938 0.468231
9 1 0.440165 0.442199 0.480464
10 1 0.493354 0.526715 0.492614
13 1 0.431142 0.85965 0.499015
14 1 0.499571 0.923887 0.496138
15 1 0.640569 0.0557285 0.482926
16 1 0.710371 0.122091 0.482463
17 1 0.643662 0.255686 0.475895
18 1 0.706147 0.328549 0.488856
19 1 0.632679 0.464546 0.490166
20 1 0.697849 0.52845 0.498369
24 1 0.320626 0.444969 0.488287
26 1 0.323117 0.325776 0.48145
27 1 0.901753 0.138189 0.497747
28 1 0.836095 0.268324 0.496908
29 1 0.906985 0.333328 0.501541
37 1 0.630046 0.86381 0.497662
46 1 0.23623 0.0648819 0.498345
47 1 0.306063 0.131633 0.487949
48 1 0.243987 0.268174 0.492035
50 1 0.699321 0.933638 0.496535
2 1 0.293316 0.724867 0.508985
3 1 0.229268 0.862272 0.509948
4 1 0.295494 0.934589 0.504672
11 1 0.423388 0.658821 0.501824
12 1 0.493253 0.727943 0.500547
21 1 0.626896 0.665057 0.504097
22 1 0.691867 0.731304 0.505261
23 1 0.209902 0.674535 0.519689
25 1 0.217227 0.550032 0.512659
30 1 0.835973 0.467515 0.50222
31 1 0.89879 0.541978 0.508709
32 1 0.82547 0.671541 0.514817
33 1 0.88577 0.743919 0.523574
34 1 0.825516 0.871508 0.509512
35 1 0.894237 0.940998 0.514939
36 1 0.0325246 0.0741897 0.502969
38 1 0.105306 0.135999 0.501321
39 1 0.110962 0.338884 0.502242
40 1 0.0389616 0.475703 0.509371
41 1 0.0928459 0.555546 0.522852
42 1 0.0173266 0.681162 0.530194
43 1 0.0846041 0.750435 0.530613
44 1 0.0265679 0.877323 0.521418
45 1 0.0972518 0.936907 0.511313
49 1 0.0392403 0.272047 0.499747
ITEM: TIMESTEP
4
ITEM: NUMBER OF ATOMS
50
ITEM: BOX BOUNDS xy xz yz pp pp pp
2.8347430000000000e+00 2.0754815000000001e+01 5.7099019999999996e+00
1.1195000000000000e-02 1.0811166000000000e+01 -1.3934999999999999e-02
3.2877000000000003e-02 1.5903981999999999e+01 2.3820000000000001e-02
ITEM: ATOMS id type xs ys zs
1 1 0.838619 0.0645056 0.497976
5 1 0.436414 0.0593523 0.485063
6 1 0.51037 0.119467 0.477946
7 1 0.449905 0.246964 0.46882
8 1 0.5184 0.312065 0.467732
9 1 0.440448 0.442234 0.480113
10 1 0.493044 0.527199 0.492805
13 1 0.430613 0.859711 0.499113
14 1 0.499696 0.924007 0.496485
15 1 0.640639 0.0563564 0.482853
16 1 0.710724 0.121449 0.482427
17 1 0.644142 0.254709 0.476147
18 1 0.705409 0.328811 0.489643
19 1 0.632214 0.464456 0.489946
20 1 0.698211 0.528959 0.498361
24 1 0.320305 0.4454 0.488041
26 1 0.322919 0.325487 0.481369
27 1 0.901527 0.138549 0.497521
28 1 0.835498 0.268652 0.497833
29 1 0.907019 0.33343 0.502256
37 1 0.630046 0.863924 0.497249
46 1 0.236402 0.0647808 0.498138
47 1 0.306249 0.131145 0.48707
48 1 0.244401 0.267516 0.492086
50 1 0.699462 0.932854 0.495935
2 1 0.293257 0.724997 0.508831
3 1 0.229334 0.862216 0.51005
4 1 0.295353 0.93428 0.50543
11 1 0.423542 0.659161 0.502084
12 1 0.492954 0.728255 0.500668
21 1 0.626144 0.665011 0.504756
22 1 0.691551 0.732125 0.505318
23 1 0.210626 0.674022 0.519514
25 1 0.218038 0.549607 0.512657
30 1 0.836042 0.467604 0.502346
31 1 0.89847 0.542649 0.508461
32 1 0.824452 0.672587 0.515159
33 1 0.886109 0.744007 0.523669
34 1 0.825871 0.871942 0.508301
35 1 0.894855 0.940192 0.515147
36 1 0.0323198 0.0743747 0.502402
38 1 0.105284 0.136108 0.50126
39 1 0.111013 0.338611 0.502626
40 1 0.0388575 0.475865 0.509335
41 1 0.0935322 0.554923 0.523546
42 1 0.0168911 0.681628 0.530347
43 1 0.0848837 0.750318 0.530728
44 1 0.02656 0.876953 0.521074
45 1 0.0972633 0.937218 0.510667
49 1 0.0397015 0.271646 0.499683
ITEM: TIMESTEP
5
ITEM: NUMBER OF ATOMS
50
ITEM: BOX BOUNDS xy xz yz pp pp pp
2.8347430000000000e+00 2.0754815000000001e+01 5.7099019999999996e+00
1.1195000000000000e-02 1.0811166000000000e+01 -1.3934999999999999e-02
3.2877000000000003e-02 1.5903981999999999e+01 2.3820000000000001e-02
ITEM: ATOMS id type xs ys zs
1 1 0.838432 0.0652231 0.497846
5 1 0.437059 0.0584087 0.484926
6 1 0.509981 0.11958 0.478284
7 1 0.449895 0.246272 0.468601
8 1 0.517775 0.312663 0.467268
9 1 0.440989 0.44209 0.479758
10 1 0.492899 0.527127 0.492872
13 1 0.429714 0.860013 0.499336
14 1 0.499649 0.924769 0.496633
15 1 0.640549 0.057557 0.482742
16 1 0.710728 0.121369 0.482394
17 1 0.64521 0.253505 0.476449
18 1 0.704337 0.329358 0.490312
19 1 0.631448 0.463871 0.489824
20 1 0.698827 0.530001 0.498472
24 1 0.319535 0.446362 0.487932
26 1 0.322962 0.324867 0.481245
27 1 0.901441 0.1385 0.497383
28 1 0.835145 0.268961 0.498692
29 1 0.906753 0.333992 0.502886
37 1 0.630155 0.863895 0.496937
46 1 0.236488 0.0650039 0.497942
47 1 0.30622 0.130792 0.486351
48 1 0.244802 0.267113 0.492066
50 1 0.699499 0.931328 0.495336
2 1 0.292709 0.72556 0.50876
3 1 0.229435 0.862513 0.510123
4 1 0.295723 0.93315 0.506032
11 1 0.424102 0.65941 0.502277
12 1 0.492628 0.728335 0.500863
21 1 0.625419 0.664529 0.505245
22 1 0.691571 0.733177 0.50544
23 1 0.211475 0.67305 0.519328
25 1 0.218827 0.549109 0.51266
30 1 0.835954 0.467789 0.502471
31 1 0.898521 0.542587 0.508269
32 1 0.823398 0.673498 0.515413
33 1 0.88677 0.743857 0.523673
34 1 0.826636 0.872423 0.507354
35 1 0.895724 0.938899 0.515193
36 1 0.0325327 0.074015 0.501914
38 1 0.104944 0.136521 0.501132
39 1 0.110645 0.338495 0.502918
40 1 0.038745 0.47599 0.509401
41 1 0.0944315 0.554373 0.524089
42 1 0.0160151 0.682572 0.5306
43 1 0.084956 0.750147 0.530801
44 1 0.0261837 0.876674 0.5208
45 1 0.0972917 0.937923 0.510019
49 1 0.0404499 0.271067 0.499729
ITEM: TIMESTEP
6
ITEM: NUMBER OF ATOMS
50
ITEM: BOX BOUNDS xy xz yz pp pp pp
2.8347430000000000e+00 2.0754815000000001e+01 5.7099019999999996e+00
1.1195000000000000e-02 1.0811166000000000e+01 -1.3934999999999999e-02
3.2877000000000003e-02 1.5903981999999999e+01 2.3820000000000001e-02
ITEM: ATOMS id type xs ys zs
1 1 0.838009 0.0661328 0.497702
5 1 0.437826 0.0572445 0.484873
6 1 0.509537 0.119597 0.478497
7 1 0.449877 0.245622 0.468404
8 1 0.517301 0.313491 0.466857
9 1 0.441639 0.441812 0.479407
10 1 0.49296 0.526522 0.492808
13 1 0.428634 0.860541 0.499689
14 1 0.499374 0.926 0.496579
15 1 0.640355 0.0588531 0.482628
16 1 0.710469 0.121838 0.482372
17 1 0.646498 0.252385 0.476771
18 1 0.703095 0.330047 0.490857
19 1 0.630543 0.463031 0.489839
20 1 0.69945 0.531318 0.498681
24 1 0.318632 0.447481 0.487897
26 1 0.323224 0.324045 0.481083
27 1 0.901475 0.138107 0.497343
28 1 0.835035 0.26928 0.49947
29 1 0.906236 0.334891 0.503417
37 1 0.63031 0.863758 0.49673
46 1 0.236476 0.0654373 0.497767
47 1 0.306036 0.13055 0.485817
48 1 0.245099 0.26699 0.491973
50 1 0.699423 0.929566 0.494703
2 1 0.291834 0.726433 0.50877
3 1 0.229494 0.863108 0.510171
4 1 0.296514 0.931474 0.506444
11 1 0.424882 0.659575 0.502403
12 1 0.492291 0.728195 0.501137
21 1 0.624917 0.663806 0.505551
22 1 0.691787 0.734225 0.50563
23 1 0.212288 0.671804 0.519152
25 1 0.219373 0.548714 0.512714
30 1 0.835747 0.468107 0.5026
31 1 0.898869 0.541912 0.508157
32 1 0.822512 0.674146 0.51557
33 1 0.887536 0.743614 0.523562
34 1 0.827697 0.872757 0.506698
35 1 0.896625 0.937543 0.515015
36 1 0.0331234 0.0731987 0.50151
38 1 0.1044 0.137117 0.500933
39 1 0.109967 0.338507 0.503102
40 1 0.0386618 0.476073 0.50958
41 1 0.0953661 0.554048 0.524474
42 1 0.0150455 0.68367 0.530954
43 1 0.0848965 0.749882 0.530817
44 1 0.0256617 0.876499 0.52059
45 1 0.0972761 0.938877 0.509398
49 1 0.0413006 0.270458 0.499895
ITEM: TIMESTEP
7
ITEM: NUMBER OF ATOMS
50
ITEM: BOX BOUNDS xy xz yz pp pp pp
2.8347430000000000e+00 2.0754815000000001e+01 5.7099019999999996e+00
1.1195000000000000e-02 1.0811166000000000e+01 -1.3934999999999999e-02
3.2877000000000003e-02 1.5903981999999999e+01 2.3820000000000001e-02
ITEM: ATOMS id type xs ys zs
1 1 0.837511 0.0669334 0.497578
5 1 0.438548 0.0560829 0.484887
6 1 0.509188 0.119451 0.478578
7 1 0.449813 0.245205 0.468223
8 1 0.517196 0.314265 0.466518
9 1 0.442217 0.441464 0.479071
10 1 0.493235 0.52548 0.492618
13 1 0.427632 0.861202 0.500164
14 1 0.498874 0.927415 0.496343
15 1 0.640102 0.0597946 0.482539
16 1 0.710069 0.122751 0.482375
17 1 0.647596 0.2517 0.47708
18 1 0.701919 0.33069 0.491284
19 1 0.62966 0.462208 0.490021
20 1 0.699849 0.532614 0.498962
24 1 0.317965 0.448319 0.487855
26 1 0.323642 0.323196 0.480891
27 1 0.901606 0.137488 0.497407
28 1 0.835134 0.269619 0.500151
29 1 0.905563 0.335944 0.503839
37 1 0.630408 0.86358 0.496624
46 1 0.236364 0.0659322 0.497627
47 1 0.305776 0.130399 0.485487
48 1 0.245206 0.267137 0.491808
50 1 0.699309 0.928065 0.49402
2 1 0.29084 0.727441 0.508852
3 1 0.22943 0.863883 0.510192
4 1 0.297559 0.929656 0.506645
11 1 0.425647 0.659654 0.502464
12 1 0.491979 0.727894 0.501489
21 1 0.624781 0.663075 0.505679
22 1 0.692065 0.735025 0.505887
23 1 0.212891 0.670552 0.519012
25 1 0.219471 0.548585 0.512863
30 1 0.835471 0.468578 0.502738
31 1 0.899412 0.54084 0.508144
32 1 0.822007 0.674408 0.515627
33 1 0.88817 0.743416 0.523321
34 1 0.828844 0.872773 0.506334
35 1 0.897333 0.936561 0.51457
36 1 0.0339764 0.0720999 0.501185
38 1 0.103814 0.137722 0.500664
39 1 0.109145 0.338614 0.503169
40 1 0.0386437 0.47611 0.509875
41 1 0.0961331 0.554061 0.524705
42 1 0.0143501 0.684577 0.531401
43 1 0.0847822 0.74953 0.530768
44 1 0.0252608 0.87641 0.520433
45 1 0.09718 0.939882 0.508837
49 1 0.0420139 0.27 0.500183
ITEM: TIMESTEP
8
ITEM: NUMBER OF ATOMS
50
ITEM: BOX BOUNDS xy xz yz pp pp pp
2.8347430000000000e+00 2.0754815000000001e+01 5.7099019999999996e+00
1.1195000000000000e-02 1.0811166000000000e+01 -1.3934999999999999e-02
3.2877000000000003e-02 1.5903981999999999e+01 2.3820000000000001e-02
ITEM: ATOMS id type xs ys zs
1 1 0.837062 0.0674145 0.497491
5 1 0.43903 0.0552064 0.484943
6 1 0.509043 0.119129 0.478523
7 1 0.449737 0.245114 0.468053
8 1 0.517567 0.314727 0.466258
9 1 0.44256 0.441104 0.478759
10 1 0.493693 0.524177 0.492322
13 1 0.426986 0.861836 0.500737
14 1 0.498229 0.928668 0.495967
15 1 0.639832 0.0601024 0.482481
16 1 0.709641 0.123916 0.482416
17 1 0.648168 0.251734 0.477341
18 1 0.701062 0.331123 0.491611
19 1 0.628925 0.461626 0.49038
20 1 0.699878 0.533626 0.499288
24 1 0.317781 0.448576 0.487751
26 1 0.324126 0.322503 0.48068
27 1 0.901824 0.136786 0.497579
28 1 0.835388 0.269954 0.500719
29 1 0.904842 0.336969 0.504152
37 1 0.630347 0.863436 0.496609
46 1 0.236159 0.0663559 0.497526
47 1 0.305506 0.130337 0.485371
48 1 0.245067 0.267505 0.491576
50 1 0.699279 0.927177 0.493294
2 1 0.289918 0.728399 0.508998
3 1 0.229189 0.864691 0.510188
4 1 0.298635 0.928119 0.506631
11 1 0.426179 0.659622 0.502465
12 1 0.49175 0.727518 0.501914
21 1 0.625048 0.662557 0.505643
22 1 0.69232 0.735375 0.506206
23 1 0.213153 0.669558 0.518928
25 1 0.21905 0.548767 0.513125
30 1 0.835162 0.469186 0.502889
31 1 0.900057 0.539615 0.50825
32 1 0.822046 0.674205 0.515583
33 1 0.88849 0.743343 0.522952
34 1 0.829834 0.872381 0.506232
35 1 0.897693 0.936253 0.51385
36 1 0.0349138 0.0709582 0.500933
38 1 0.10334 0.138172 0.500335
39 1 0.108356 0.338792 0.503121
40 1 0.0387162 0.4761 0.51028
41 1 0.096558 0.554448 0.524794
42 1 0.0141935 0.685025 0.531927
43 1 0.08467 0.749155 0.530652
44 1 0.0252004 0.876373 0.520315
45 1 0.097017 0.940713 0.508369
49 1 0.0423579 0.269856 0.500583
ITEM: TIMESTEP
9
ITEM: NUMBER OF ATOMS
50
ITEM: BOX BOUNDS xy xz yz pp pp pp
2.8347430000000000e+00 2.0754815000000001e+01 5.7099019999999996e+00
1.1195000000000000e-02 1.0811166000000000e+01 -1.3934999999999999e-02
3.2877000000000003e-02 1.5903981999999999e+01 2.3820000000000001e-02
ITEM: ATOMS id type xs ys zs
1 1 0.836723 0.0674987 0.497441
5 1 0.439097 0.0548904 0.485009
6 1 0.509129 0.118681 0.478331
7 1 0.449759 0.245307 0.467887
8 1 0.518378 0.314732 0.466078
9 1 0.442568 0.440764 0.478474
10 1 0.494257 0.522825 0.491945
13 1 0.426923 0.862263 0.50138
14 1 0.497584 0.929417 0.4955
15 1 0.639605 0.0597119 0.482446
16 1 0.709241 0.125102 0.482508
17 1 0.648047 0.252603 0.477534
18 1 0.700732 0.331263 0.491861
19 1 0.628438 0.461418 0.490913
20 1 0.699499 0.534159 0.49964
24 1 0.318109 0.44819 0.487581
26 1 0.324585 0.322116 0.48046
27 1 0.902131 0.136137 0.497856
28 1 0.835734 0.270232 0.50116
29 1 0.904177 0.337832 0.504361
37 1 0.630077 0.863383 0.496668
46 1 0.235885 0.0666137 0.497464
47 1 0.305256 0.130386 0.485472
48 1 0.24467 0.268018 0.49128
50 1 0.699427 0.927049 0.49255
2 1 0.289202 0.729148 0.509196
3 1 0.228773 0.865387 0.510155
4 1 0.299501 0.927219 0.50641
11 1 0.426331 0.65945 0.502413
12 1 0.491674 0.727155 0.502402
21 1 0.625651 0.662411 0.505469
22 1 0.692527 0.73517 0.506574
23 1 0.21301 0.66904 0.518914
25 1 0.218243 0.549124 0.513465
30 1 0.834834 0.469876 0.503056
31 1 0.900732 0.538464 0.508487
32 1 0.822684 0.673524 0.515442
33 1 0.888462 0.743371 0.522478
34 1 0.830462 0.871613 0.506346
35 1 0.897663 0.936698 0.512875
36 1 0.0357325 0.0700316 0.500741
38 1 0.103087 0.138353 0.49996
39 1 0.107755 0.339033 0.502967
40 1 0.0388869 0.476044 0.510782
41 1 0.0965255 0.555165 0.52476
42 1 0.014634 0.684907 0.532508
43 1 0.0845898 0.74886 0.530477
44 1 0.0255668 0.876371 0.520215
45 1 0.0968495 0.941162 0.508021
49 1 0.0421702 0.270112 0.501078
ITEM: TIMESTEP
10
ITEM: NUMBER OF ATOMS
50
ITEM: BOX BOUNDS xy xz yz pp pp pp
2.8347430000000000e+00 2.0754815000000001e+01 5.7099019999999996e+00
1.1195000000000000e-02 1.0811166000000000e+01 -1.3934999999999999e-02
3.2877000000000003e-02 1.5903981999999999e+01 2.3820000000000001e-02
ITEM: ATOMS id type xs ys zs
1 1 0.836491 0.0672497 0.497411
5 1 0.438653 0.0552942 0.48506
6 1 0.509392 0.118207 0.478002
7 1 0.450014 0.245636 0.467722
8 1 0.519448 0.314293 0.465972
9 1 0.442232 0.440439 0.478215
10 1 0.49481 0.521629 0.491518
13 1 0.427529 0.862344 0.502061
14 1 0.497085 0.929456 0.494994
15 1 0.639504 0.0587526 0.482411
16 1 0.708859 0.126116 0.482656
17 1 0.647279 0.254192 0.477651
18 1 0.701047 0.331138 0.492058
19 1 0.628279 0.461599 0.4916
20 1 0.698761 0.534126 0.500008
24 1 0.318772 0.447327 0.487386
26 1 0.324945 0.322121 0.480237
27 1 0.902528 0.135645 0.498235
28 1 0.836107 0.270382 0.501463
29 1 0.903645 0.338455 0.504478
37 1 0.629639 0.863445 0.496785
46 1 0.235588 0.066657 0.497432
47 1 0.305027 0.130583 0.485781
48 1 0.244055 0.268597 0.490926
50 1 0.699768 0.927604 0.491831
2 1 0.288759 0.72958 0.509437
3 1 0.228255 0.865864 0.51009
4 1 0.299959 0.927155 0.506004
11 1 0.426058 0.659125 0.502313
12 1 0.491803 0.726867 0.502941
21 1 0.626458 0.66269 0.505186
22 1 0.692714 0.73443 0.506971
23 1 0.212477 0.669108 0.518975
25 1 0.217345 0.549403 0.513815
30 1 0.834473 0.470562 0.50324
31 1 0.901394 0.537567 0.508858
32 1 0.823861 0.672422 0.515205
33 1 0.888219 0.743369 0.521944
34 1 0.830617 0.870641 0.506614
35 1 0.897327 0.937727 0.511696
36 1 0.0362552 0.0695258 0.5006
38 1 0.103086 0.138246 0.499561
39 1 0.107434 0.339338 0.502726
40 1 0.0391435 0.475946 0.511359
41 1 0.096008 0.556094 0.524627
42 1 0.0154989 0.684302 0.533109
43 1 0.0845451 0.748756 0.530261
44 1 0.0262739 0.876429 0.520111
45 1 0.0967593 0.941088 0.507811
49 1 0.0414015 0.270762 0.50164
ITEM: TIMESTEP
11
ITEM: NUMBER OF ATOMS
50
ITEM: BOX BOUNDS xy xz yz pp pp pp
2.8347430000000000e+00 2.0754815000000001e+01 5.7099019999999996e+00
1.1195000000000000e-02 1.0811166000000000e+01 -1.3934999999999999e-02
3.2877000000000003e-02 1.5903981999999999e+01 2.3820000000000001e-02
ITEM: ATOMS id type xs ys zs
1 1 0.836306 0.0668514 0.497374
5 1 0.437718 0.0563762 0.485087
6 1 0.509725 0.117821 0.477541
7 1 0.450602 0.245913 0.467557
8 1 0.520482 0.31358 0.46593
9 1 0.441641 0.440098 0.477977
10 1 0.495223 0.520748 0.491072
13 1 0.428704 0.862015 0.502749
14 1 0.496832 0.928808 0.494483
15 1 0.639592 0.0575016 0.482349
16 1 0.708437 0.126861 0.482859
17 1 0.646123 0.256172 0.477704
18 1 0.702006 0.330867 0.492221
19 1 0.628503 0.462079 0.492412
20 1 0.697773 0.533567 0.50039
24 1 0.319483 0.446272 0.487231
26 1 0.325177 0.322497 0.480009
27 1 0.903001 0.135377 0.498703
28 1 0.83646 0.270332 0.501625
29 1 0.903292 0.338825 0.50452
37 1 0.629155 0.863592 0.49694
46 1 0.235327 0.0664839 0.497417
47 1 0.304789 0.130966 0.486282
48 1 0.243311 0.269176 0.490519
50 1 0.70025 0.928572 0.491194
2 1 0.288598 0.729647 0.509708
3 1 0.227772 0.866065 0.509987
4 1 0.299919 0.927929 0.505442
11 1 0.425424 0.65867 0.502176
12 1 0.492151 0.726665 0.503515
21 1 0.627301 0.663312 0.504829
22 1 0.692952 0.733303 0.507368
23 1 0.211642 0.669736 0.519106
25 1 0.216669 0.549376 0.514099
30 1 0.834051 0.471137 0.503444
31 1 0.902019 0.53702 0.509358
32 1 0.825416 0.67101 0.514882
33 1 0.88798 0.743161 0.521409
34 1 0.8303 0.869727 0.506972
35 1 0.89685 0.938982 0.51039
36 1 0.0363767 0.0695304 0.500505
38 1 0.103284 0.137928 0.499162
39 1 0.107402 0.339708 0.50242
40 1 0.039455 0.475814 0.511984
41 1 0.0950987 0.557039 0.52442
42 1 0.0164566 0.683451 0.533688
43 1 0.0845127 0.748933 0.530029
44 1 0.0270967 0.876594 0.519977
45 1 0.0968084 0.940485 0.507741
49 1 0.0401316 0.271709 0.502234
ITEM: TIMESTEP
12
ITEM: NUMBER OF ATOMS
50
ITEM: BOX BOUNDS xy xz yz pp pp pp
2.8347430000000000e+00 2.0754815000000001e+01 5.7099019999999996e+00
1.1195000000000000e-02 1.0811166000000000e+01 -1.3934999999999999e-02
3.2877000000000003e-02 1.5903981999999999e+01 2.3820000000000001e-02
ITEM: ATOMS id type xs ys zs
1 1 0.836086 0.0665534 0.4973
5 1 0.436437 0.0579051 0.485091
6 1 0.510012 0.117609 0.476958
7 1 0.451534 0.24598 0.467396
8 1 0.521149 0.312857 0.465932
9 1 0.440962 0.439715 0.477758
10 1 0.495376 0.52027 0.490632
13 1 0.430179 0.861304 0.50342
14 1 0.496868 0.927717 0.49399
15 1 0.639874 0.0563244 0.482227
16 1 0.707913 0.12733 0.483107
17 1 0.644978 0.258115 0.477723
18 1 0.703491 0.330598 0.492362
19 1 0.629105 0.462694 0.493309
20 1 0.69669 0.532653 0.500791
24 1 0.319963 0.445321 0.487173
26 1 0.325301 0.323125 0.479769
27 1 0.903505 0.135355 0.499241
28 1 0.836778 0.270033 0.50165
29 1 0.90312 0.338977 0.504504
37 1 0.628786 0.863748 0.497114
46 1 0.235157 0.066145 0.497403
47 1 0.304491 0.131562 0.48695
48 1 0.242557 0.269719 0.490067
50 1 0.700796 0.929569 0.490696
2 1 0.288681 0.729362 0.509998
3 1 0.227483 0.865983 0.50984
4 1 0.299425 0.929355 0.504762
11 1 0.42458 0.658126 0.502012
12 1 0.49269 0.726523 0.504102
21 1 0.628006 0.664073 0.504429
22 1 0.693336 0.732025 0.507732
23 1 0.210643 0.670769 0.519294
25 1 0.216419 0.548947 0.514264
30 1 0.833555 0.471506 0.503672
31 1 0.902591 0.536824 0.509972
32 1 0.827134 0.669435 0.514487
33 1 0.887955 0.742605 0.520928
34 1 0.829605 0.869129 0.507354
35 1 0.896419 0.940028 0.509044
36 1 0.0360974 0.0699867 0.500459
38 1 0.103555 0.137546 0.498792
39 1 0.10759 0.340137 0.50208
40 1 0.039778 0.475664 0.512628
41 1 0.0940036 0.557768 0.524158
42 1 0.017144 0.682679 0.534206
43 1 0.084446 0.749424 0.52981
44 1 0.0277561 0.876904 0.519791
45 1 0.0970177 0.939501 0.507793
49 1 0.0385608 0.272804 0.50282
ITEM: TIMESTEP
13
ITEM: NUMBER OF ATOMS
50
ITEM: BOX BOUNDS xy xz yz pp pp pp
2.8347430000000000e+00 2.0754815000000001e+01 5.7099019999999996e+00
1.1195000000000000e-02 1.0811166000000000e+01 -1.3934999999999999e-02
3.2877000000000003e-02 1.5903981999999999e+01 2.3820000000000001e-02
ITEM: ATOMS id type xs ys zs
1 1 0.83576 0.0665772 0.497169
5 1 0.435025 0.059558 0.485078
6 1 0.510175 0.117603 0.476271
7 1 0.452697 0.245765 0.467243
8 1 0.521208 0.312386 0.46596
9 1 0.440372 0.4393 0.477554
10 1 0.495204 0.520205 0.490222
13 1 0.431607 0.86032 0.504046
14 1 0.497187 0.926529 0.493527
15 1 0.64028 0.0555888 0.482018
16 1 0.707259 0.127579 0.483388
17 1 0.644243 0.259632 0.477745
18 1 0.705281 0.330451 0.49248
19 1 0.629985 0.46325 0.494242
20 1 0.6957 0.531641 0.50122
24 1 0.320022 0.444697 0.487247
26 1 0.325375 0.323807 0.479507
27 1 0.903958 0.135562 0.499822
28 1 0.837088 0.269477 0.50155
29 1 0.903087 0.338975 0.50445
37 1 0.628682 0.86381 0.497291
46 1 0.235105 0.0657485 0.497375
47 1 0.304084 0.132377 0.487749
48 1 0.241918 0.270215 0.489581
50 1 0.701329 0.930218 0.490385
2 1 0.288939 0.728791 0.510293
3 1 0.227518 0.865664 0.509645
4 1 0.298635 0.931101 0.504012
11 1 0.423725 0.657534 0.501836
12 1 0.493351 0.726392 0.504679
21 1 0.628421 0.664711 0.504022
22 1 0.693959 0.730857 0.508031
23 1 0.209639 0.671971 0.519519
25 1 0.216617 0.548185 0.514296
30 1 0.833002 0.4716 0.503931
31 1 0.903094 0.536873 0.510674
32 1 0.828791 0.667865 0.514043
33 1 0.888262 0.741674 0.520543
34 1 0.828712 0.868993 0.507709
35 1 0.896168 0.940513 0.507748
36 1 0.0355265 0.0707132 0.50047
38 1 0.103749 0.137266 0.498477
39 1 0.10787 0.340612 0.501737
40 1 0.0400638 0.475507 0.513257
41 1 0.0929803 0.558084 0.523856
42 1 0.0172982 0.682282 0.534627
43 1 0.0842846 0.750189 0.529636
44 1 0.0280028 0.877358 0.519535
45 1 0.0973724 0.938398 0.507938
49 1 0.0369704 0.27388 0.503354
ITEM: TIMESTEP
14
ITEM: NUMBER OF ATOMS
50
ITEM: BOX BOUNDS xy xz yz pp pp pp
2.8347430000000000e+00 2.0754815000000001e+01 5.7099019999999996e+00
1.1195000000000000e-02 1.0811166000000000e+01 -1.3934999999999999e-02
3.2877000000000003e-02 1.5903981999999999e+01 2.3820000000000001e-02
ITEM: ATOMS id type xs ys zs
1 1 0.835315 0.0670162 0.496976
5 1 0.433715 0.0610249 0.485051
6 1 0.510196 0.117775 0.475505
7 1 0.453876 0.245302 0.4671
8 1 0.520644 0.312329 0.466005
9 1 0.439993 0.438915 0.477371
10 1 0.494707 0.520488 0.489862
13 1 0.432667 0.859238 0.504598
14 1 0.497742 0.925555 0.49311
15 1 0.640689 0.0555362 0.481705
16 1 0.706501 0.127698 0.483686
17 1 0.644161 0.260497 0.477797
18 1 0.70709 0.33048 0.492565
19 1 0.630958 0.463557 0.495154
20 1 0.695012 0.530821 0.501685
24 1 0.319618 0.4445 0.487452
26 1 0.325469 0.32432 0.479211
27 1 0.904251 0.135939 0.500412
28 1 0.837457 0.268713 0.501348
29 1 0.903116 0.338889 0.504379
37 1 0.628955 0.863682 0.497456
46 1 0.235143 0.0654553 0.497323
47 1 0.303528 0.133385 0.488639
48 1 0.241494 0.270679 0.489078
50 1 0.701763 0.930284 0.49029
2 1 0.289296 0.728035 0.510579
3 1 0.227934 0.865189 0.509398
4 1 0.29777 0.93277 0.503243
11 1 0.42305 0.656921 0.501661
12 1 0.494046 0.726212 0.505221
21 1 0.628468 0.665003 0.503643
22 1 0.694864 0.730004 0.508235
23 1 0.208777 0.673084 0.519761
25 1 0.217106 0.547299 0.514219
30 1 0.832444 0.471399 0.504233
31 1 0.903506 0.53698 0.511431
32 1 0.830187 0.66647 0.513577
33 1 0.888891 0.740489 0.520271
34 1 0.827852 0.869287 0.508005
35 1 0.896128 0.940292 0.506568
36 1 0.0348476 0.0714782 0.500548
38 1 0.103729 0.137222 0.498243
39 1 0.108104 0.341114 0.501423
40 1 0.0402665 0.475353 0.513839
41 1 0.0922535 0.557914 0.523536
42 1 0.0168493 0.682411 0.534922
43 1 0.0839704 0.75112 0.529535
44 1 0.0276823 0.877915 0.519204
45 1 0.0978359 0.937465 0.50814
49 1 0.0356627 0.274781 0.503795
ITEM: TIMESTEP
15
ITEM: NUMBER OF ATOMS
50
ITEM: BOX BOUNDS xy xz yz pp pp pp
2.8347430000000000e+00 2.0754815000000001e+01 5.7099019999999996e+00
1.1195000000000000e-02 1.0811166000000000e+01 -1.3934999999999999e-02
3.2877000000000003e-02 1.5903981999999999e+01 2.3820000000000001e-02
ITEM: ATOMS id type xs ys zs
1 1 0.83481 0.0677888 0.496734
5 1 0.432717 0.0620671 0.485011
6 1 0.510114 0.118041 0.474689
7 1 0.454803 0.244716 0.466966
8 1 0.519693 0.312699 0.46607
9 1 0.43985 0.438659 0.477217
10 1 0.493962 0.521011 0.489571
13 1 0.433163 0.858278 0.505039
14 1 0.498445 0.924987 0.492761
15 1 0.640991 0.0561752 0.481284
16 1 0.705727 0.127794 0.483983
17 1 0.644729 0.260674 0.477887
18 1 0.708638 0.330665 0.4926
19 1 0.631802 0.463475 0.495992
20 1 0.694803 0.530432 0.502191
24 1 0.318862 0.444679 0.487751
26 1 0.325623 0.324496 0.47888
27 1 0.90428 0.136393 0.500977
28 1 0.837959 0.267851 0.501072
29 1 0.903121 0.338766 0.504304
37 1 0.629653 0.863303 0.497596
46 1 0.235189 0.0654493 0.497244
47 1 0.302826 0.134525 0.489572
48 1 0.241337 0.271138 0.48858
50 1 0.701991 0.929777 0.490411
2 1 0.289679 0.727208 0.510841
3 1 0.228699 0.864651 0.509104
4 1 0.297051 0.933985 0.502506
11 1 0.422701 0.656308 0.501505
12 1 0.494675 0.72593 0.505703
21 1 0.628187 0.664846 0.503332
22 1 0.695999 0.729544 0.508316
23 1 0.208149 0.673912 0.520007
25 1 0.217612 0.546562 0.514081
30 1 0.831962 0.47093 0.50459
31 1 0.903801 0.536932 0.512206
32 1 0.831174 0.665398 0.513122