LAMMPS (7 Aug 2019)
units           metal   # GAP models must be run with 'metal' units
atom_style      atomic
dimension       3
boundary        p p p
processors      1 1 *

# Read the input structure, in this case, a Stone-Wales defect in a (Very small!) sheet of graphene.
read_data stone_wales.data
  triclinic box = (2.84868 0.011195 0.032877) to (15.0449 10.7873 15.904) with tilt (5.7099 -0.013935 0.02382)
  1 by 1 by 16 MPI processor grid
  reading atoms ...
  50 atoms
  read_data CPU = 0.010612 secs

# To read in GAP-20, we first choose the pair_style 'quip
pair_style      quip

# We then provide the path to the Carbon_GAP_20.xml file. Note that the quotations should be left empty for GAP_20.
pair_coeff      * * ../Carbon_GAP_20/Carbon_GAP_20.xml "" 6

variable     T  equal 300
variable     dT equal 1

timestep 0.002

dump 1 all atom 1 carbon.lammpstrj

velocity all create ${T} 2282 mom yes rot yes dist gaussian mom yes
velocity all create 300 2282 mom yes rot yes dist gaussian mom yes

thermo          10

fix 1 all nvt temp ${T} ${T} ${dT}
fix 1 all nvt temp 300 ${T} ${dT}
fix 1 all nvt temp 300 300 ${dT}
fix 1 all nvt temp 300 300 1

run 500
Neighbor list info ...
  update every 1 steps, delay 10 steps, check yes
  max neighbors/atom: 2000, page size: 100000
  master list distance cutoff = 12
  ghost atom cutoff = 12
  binsize = 6, bins = 3 2 3
  1 neighbor lists, perpetual/occasional/extra = 1 0 0
  (1) pair quip, perpetual
      attributes: full, newton on
      pair build: full/bin/atomonly
      stencil: full/bin/3d
      bin: standard
WARNING: Proc sub-domain size < neighbor skin, could lead to lost atoms (../domain.cpp:931)
Per MPI rank memory allocation (min/avg/max) = 2.817 | 2.993 | 4.193 Mbytes
Step Temp E_pair E_mol TotEng Press 
       0          300   -393.30122            0   -391.40109    1804.7732 
      10    142.43882   -392.26134            0   -391.35917    1342.9883 
      20    141.53929   -392.25873            0   -391.36225    175.21139 
      30    149.13954   -392.30835            0   -391.36374     245.8852 
      40    137.17519   -392.21647            0   -391.34764   -413.74571 
      50      171.193   -392.44879            0    -391.3645    27.516452 
      60     136.6716    -392.2161            0   -391.35046   -137.26649 
      70    181.41721   -392.50383            0   -391.35478    690.89795 
      80    145.57501   -392.26814            0    -391.3461   -452.80307 
      90    146.23315   -392.26472            0   -391.33852   -211.38015 
     100    141.03855   -392.22962            0   -391.33632    357.95973 
     110    160.27544   -392.35055            0   -391.33541    696.92954 
     120    149.22913   -392.27622            0   -391.33104    1431.1839 
     130    136.18835   -392.18586            0   -391.32328    945.68144 
     140    175.57194   -392.43204            0   -391.32001    1782.0725 
     150    158.52327   -392.31673            0   -391.31268    1135.9384 
     160    148.93275    -392.2511            0    -391.3078    845.86465 
     170    151.65358   -392.26245            0   -391.30191    275.70649 
     180    163.75043    -392.3284            0   -391.29124     591.8208 
     190    164.06295   -392.32545            0   -391.28632    141.74321 
     200    122.38258   -392.04613            0   -391.27099   -499.36133 
     210    140.53117   -392.15415            0   -391.26406   -490.19915 
     220    188.75718   -392.46453            0   -391.26899   -516.39876 
     230    181.19015   -392.40401            0   -391.25639   -814.63556 
     240      141.804   -392.14005            0    -391.2419   -776.45781 
     250    151.64816   -392.19316            0   -391.23266   -101.02796 
     260    158.25121   -392.22085            0   -391.21853    148.06184 
     270    156.56982   -392.20843            0   -391.21675    1003.7741 
     280    168.93957   -392.27707            0   -391.20705    1538.7782 
     290    156.82085   -392.18465            0   -391.19139    2267.2537 
     300    170.03838   -392.26799            0   -391.19101    1553.1697 
     310    128.66175   -391.98109            0   -391.16618    1626.4606 
     320    164.10939   -392.19959            0   -391.16016    1342.7958 
     330    197.76575   -392.41232            0   -391.15972    1411.9237 
     340    152.32492   -392.10592            0   -391.14113    1220.9053 
     350    165.24986   -392.18323            0   -391.13658    314.51805 
     360    158.79759   -392.12597            0   -391.12019    764.44874 
     370    196.34031   -392.35836            0   -391.11479    97.471397 
     380    167.64383    -392.1644            0   -391.10259   -1223.4169 
     390    153.06547   -392.06103            0   -391.09155   -1615.9637 
     400    172.46214   -392.18037            0   -391.08804   -1366.8968 
     410    169.81889   -392.14838            0   -391.07279   -997.41374 
     420    160.32086   -392.07925            0   -391.06382   -642.43347 
     430     171.0324   -392.13869            0   -391.05542   -98.147215 
     440    174.51718   -392.14864            0    -391.0433    1011.2375 
     450    209.97273   -392.38322            0   -391.05331    345.35701 
     460    153.00329   -391.99039            0   -391.02131    480.94149 
     470    171.31097   -392.10817            0   -391.02313    1472.2433 
     480    180.26728    -392.1557            0   -391.01393    2310.3231 
     490    140.12278   -391.88336            0   -390.99586     1948.375 
     500    216.80369   -392.38284            0   -391.00966    2898.6299 
Loop time of 280.602 on 16 procs for 500 steps with 50 atoms

Performance: 0.308 ns/day, 77.945 hours/ns, 1.782 timesteps/s
109.9% CPU use with 16 MPI tasks x no OpenMP threads

MPI task timing breakdown:
Section |  min time  |  avg time  |  max time  |%varavg| %total
---------------------------------------------------------------
Pair    | 0.0078297  | 25.728     | 218.15     |1344.1 |  9.17
Neigh   | 0          | 0          | 0          |   0.0 |  0.00
Comm    | 2.7153     | 35.898     | 242.01     |1252.2 | 12.79
Output  | 29.625     | 32.628     | 35.207     |  29.9 | 11.63
Modify  | 2.8674     | 183.46     | 241.99     | 745.5 | 65.38
Other   |            | 2.893      |            |       |  1.03

Nlocal:    3.125 ave 25 max 0 min
Histogram: 14 0 0 0 0 0 0 0 0 2
Nghost:    834.875 ave 1056 max 503 min
Histogram: 6 0 0 0 0 0 1 1 0 8
Neighs:    0 ave 0 max 0 min
Histogram: 16 0 0 0 0 0 0 0 0 0
FullNghs:  528.375 ave 4228 max 0 min
Histogram: 14 0 0 0 0 0 0 0 0 2

Total # of neighbors = 8454
Ave neighs/atom = 169.08
Neighbor list builds = 0
Dangerous builds = 0

Total wall time: 0:05:32
